# Forces      
# CofR        : (0.000000e+00 0.000000e+00 0.000000e+00)
# Time        forces(pressure viscous)	moments(pressure viscous)
0.00257197    	((6.579703e-05 3.732199e-04 -1.712203e-05) (1.197953e-05 -7.336734e-05 1.103093e-05)) ((1.697775e-07 -1.715155e-07 4.233966e-08) (-1.092146e-09 -2.408106e-07 1.252967e-08))
0.00292533    	((6.435177e-05 3.887346e-04 -3.094510e-05) (1.406139e-05 -7.453918e-05 7.316789e-06)) ((1.866557e-07 -1.786492e-07 1.116054e-08) (3.325393e-09 -2.313522e-07 1.215765e-08))
0.00328457    	((5.958326e-05 3.955503e-04 -4.433917e-05) (1.545489e-05 -7.600370e-05 3.505510e-06)) ((1.852329e-07 -1.821103e-07 -2.534598e-08) (7.000625e-09 -2.240623e-07 1.122845e-08))
0.00364357    	((5.207580e-05 4.067378e-04 -5.591218e-05) (1.602738e-05 -7.768185e-05 -2.778996e-07)) ((1.838866e-07 -1.874821e-07 -5.900047e-08) (9.864956e-09 -2.188447e-07 9.549617e-09))
0.00399942    	((4.122954e-05 4.060979e-04 -6.608250e-05) (1.574129e-05 -7.946439e-05 -3.861988e-06)) ((1.696400e-07 -1.881164e-07 -9.457564e-08) (1.200882e-08 -2.153999e-07 7.283801e-09))
0.00435649    	((2.604437e-05 4.031698e-04 -7.258569e-05) (1.474199e-05 -8.128817e-05 -7.058470e-06)) ((1.488161e-07 -1.875498e-07 -1.258573e-07) (1.338636e-08 -2.131861e-07 4.641387e-09))
0.00471945    	((1.104740e-05 3.978757e-04 -7.451844e-05) (1.298773e-05 -8.317201e-05 -9.805905e-06)) ((1.209058e-07 -1.860491e-07 -1.522362e-07) (1.408666e-08 -2.114478e-07 1.590120e-09))
0.00508949    	((-6.035103e-06 3.940368e-04 -7.385747e-05) (1.059733e-05 -8.501523e-05 -1.224456e-05)) ((8.915115e-08 -1.850591e-07 -1.750172e-07) (1.430248e-08 -2.096340e-07 -1.713534e-09))
