# Forces      
# CofR        : (0.000000e+00 0.000000e+00 0.000000e+00)
# Time        forces(pressure viscous)	moments(pressure viscous)
0.0124103     	((5.100733e-05 2.700439e-04 -1.060159e-06) (9.621710e-06 -1.012179e-04 1.183153e-05)) ((8.853854e-08 -1.319720e-07 9.399032e-08) (-8.535793e-10 -2.031267e-07 1.601286e-08))
0.0128219     	((4.990298e-05 2.672545e-04 -1.312784e-05) (1.238130e-05 -1.017014e-04 9.141271e-06)) ((1.079884e-07 -1.307806e-07 6.605869e-08) (3.178922e-09 -2.028764e-07 1.591147e-08))
0.0132318     	((4.534957e-05 2.679488e-04 -2.538850e-05) (1.441857e-05 -1.020368e-04 5.678899e-06)) ((1.198965e-07 -1.310282e-07 3.445768e-08) (7.061176e-09 -2.021130e-07 1.492988e-08))
0.0136371     	((3.800639e-05 2.636499e-04 -3.480870e-05) (1.537621e-05 -1.022469e-04 1.763985e-06)) ((1.205058e-07 -1.290687e-07 1.015840e-09) (1.043971e-08 -2.017938e-07 1.274913e-08))
0.0140429     	((2.782383e-05 2.587257e-04 -4.290011e-05) (1.528835e-05 -1.024148e-04 -2.319027e-06)) ((1.133402e-07 -1.268147e-07 -3.002087e-08) (1.328007e-08 -2.023319e-07 9.566612e-09))
0.0144543     	((1.650348e-05 2.518990e-04 -4.685203e-05) (1.440301e-05 -1.026239e-04 -6.276655e-06)) ((9.740178e-08 -1.239726e-07 -5.941574e-08) (1.529425e-08 -2.035533e-07 6.017722e-09))
