# Forces      
# CofR        : (0.000000e+00 0.000000e+00 0.000000e+00)
# Time        forces(pressure viscous)	moments(pressure viscous)
0.00508949    	((-6.035103e-06 3.940368e-04 -7.385747e-05) (1.059733e-05 -8.501523e-05 -1.224456e-05)) ((8.915115e-08 -1.850591e-07 -1.750172e-07) (1.430248e-08 -2.096340e-07 -1.713534e-09))
0.00546497    	((-2.064872e-05 3.897590e-04 -6.849450e-05) (7.730320e-06 -8.668319e-05 -1.432018e-05)) ((5.019544e-08 -1.837365e-07 -1.889427e-07) (1.390431e-08 -2.074525e-07 -4.995025e-09))
0.00584055    	((-3.610150e-05 3.866687e-04 -6.269669e-05) (4.336924e-06 -8.816819e-05 -1.564571e-05)) ((1.263069e-08 -1.828498e-07 -1.959810e-07) (1.271486e-08 -2.054925e-07 -8.110376e-09))
0.00621191    	((-4.731492e-05 3.799968e-04 -4.976841e-05) (7.101108e-07 -8.948521e-05 -1.603745e-05)) ((-2.991976e-08 -1.802992e-07 -1.916395e-07) (1.051148e-08 -2.044920e-07 -1.067028e-08))
0.00658126    	((-5.575580e-05 3.718947e-04 -3.803800e-05) (-2.826014e-06 -9.067408e-05 -1.567823e-05)) ((-6.578471e-08 -1.769715e-07 -1.788094e-07) (7.691986e-09 -2.042789e-07 -1.267358e-08))
0.00695276    	((-6.135915e-05 3.607568e-04 -2.119235e-05) (-6.070903e-06 -9.179218e-05 -1.470784e-05)) ((-1.035208e-07 -1.724860e-07 -1.583858e-07) (4.741333e-09 -2.044016e-07 -1.394924e-08))
0.00733021    	((-6.134361e-05 3.537211e-04 -6.368336e-06) (-8.989613e-06 -9.290609e-05 -1.296410e-05)) ((-1.315696e-07 -1.695482e-07 -1.299565e-07) (1.389821e-09 -2.042558e-07 -1.456764e-08))
