# Forces      
# CofR        : (0.000000e+00 0.000000e+00 0.000000e+00)
# Time        forces(pressure viscous)	moments(pressure viscous)
0.0100246     	((6.853853e-06 3.058249e-04 5.251231e-05) (-1.123109e-05 -9.832063e-05 9.867603e-06)) ((-1.094042e-07 -1.484217e-07 1.167365e-07) (-1.505511e-08 -2.024747e-07 7.012917e-10))
0.0104234     	((1.822674e-05 3.014788e-04 4.922742e-05) (-8.463723e-06 -9.899005e-05 1.233312e-05)) ((-7.486691e-08 -1.465371e-07 1.356349e-07) (-1.462760e-08 -2.017468e-07 4.438786e-09))
0.0108196     	((3.157545e-05 2.976066e-04 4.436191e-05) (-5.037742e-06 -9.951605e-05 1.402102e-05)) ((-4.016486e-08 -1.446093e-07 1.465187e-07) (-1.336294e-08 -2.008056e-07 8.023897e-09))
0.011212      	((4.015287e-05 2.915094e-04 3.336827e-05) (-1.262238e-06 -9.993916e-05 1.471564e-05)) ((-1.392766e-09 -1.418246e-07 1.454815e-07) (-1.103685e-08 -2.005873e-07 1.102235e-08))
0.0116058     	((4.689898e-05 2.833300e-04 2.420173e-05) (2.611399e-06 -1.003114e-04 1.458117e-05)) ((3.160418e-08 -1.379530e-07 1.353346e-07) (-7.958220e-09 -2.011881e-07 1.347618e-08))
0.0120045     	((5.096070e-05 2.751123e-04 1.119434e-05) (6.302287e-06 -1.007180e-04 1.366878e-05)) ((6.448075e-08 -1.343220e-07 1.177554e-07) (-4.642898e-09 -2.023049e-07 1.511997e-08))
0.0124103     	((5.100733e-05 2.700439e-04 -1.060159e-06) (9.621710e-06 -1.012179e-04 1.183153e-05)) ((8.853854e-08 -1.319720e-07 9.399032e-08) (-8.535793e-10 -2.031267e-07 1.601286e-08))
