# Forces      
# CofR        : (0.000000e+00 0.000000e+00 0.000000e+00)
# Time        forces(pressure viscous)	moments(pressure viscous)
0.00733021    	((-6.134361e-05 3.537211e-04 -6.368336e-06) (-8.989613e-06 -9.290609e-05 -1.296410e-05)) ((-1.315696e-07 -1.695482e-07 -1.299565e-07) (1.389821e-09 -2.042558e-07 -1.456764e-08))
0.00771468    	((-5.959037e-05 3.473304e-04 8.870859e-06) (-1.154314e-05 -9.396604e-05 -1.053909e-05)) ((-1.562325e-07 -1.669352e-07 -9.779958e-08) (-2.217343e-09 -2.034639e-07 -1.445747e-08))
0.00810103    	((-5.437221e-05 3.434832e-04 2.371458e-05) (-1.354027e-05 -9.486901e-05 -7.504987e-06)) ((-1.718660e-07 -1.653040e-07 -6.088890e-08) (-5.642528e-09 -2.021144e-07 -1.360735e-08))
0.00848344    	((-4.564108e-05 3.386939e-04 3.527125e-05) (-1.466314e-05 -9.564396e-05 -3.920951e-06)) ((-1.779291e-07 -1.631178e-07 -1.925899e-08) (-8.849836e-09 -2.011493e-07 -1.185524e-08))
0.00886323    	((-3.491543e-05 3.303716e-04 4.540983e-05) (-1.491296e-05 -9.630507e-05 -1.788883e-07)) ((-1.727768e-07 -1.594679e-07 1.934412e-08) (-1.141674e-08 -2.010462e-07 -9.223821e-09))
0.00924436    	((-2.101324e-05 3.212333e-04 5.098325e-05) (-1.443828e-05 -9.692223e-05 3.505113e-06)) ((-1.595976e-07 -1.552434e-07 5.747295e-08) (-1.334892e-08 -2.016302e-07 -6.213298e-09))
0.0096307     	((-7.979530e-06 3.113617e-04 5.397234e-05) (-1.325767e-05 -9.759074e-05 6.841367e-06)) ((-1.356455e-07 -1.510129e-07 8.976392e-08) (-1.451788e-08 -2.023034e-07 -2.963694e-09))
0.0100246     	((6.853853e-06 3.058249e-04 5.251231e-05) (-1.123109e-05 -9.832063e-05 9.867603e-06)) ((-1.094042e-07 -1.484217e-07 1.167365e-07) (-1.505511e-08 -2.024747e-07 7.012917e-10))
